 Q-Chem 6.0, Q-Chem, Inc., Pleasanton, CA (2022)
 Q-Chem 6.0.2 for Intel X86 EM64T Linux

User input:
--------------------------------------------------------------
$molecule
0 1
C   0.00000000   0.71817600   0.00000000
C   0.00000000  -0.71817600   0.00000000
C  -1.24721700   1.40458900   0.00000000
C  -1.24721700  -1.40458900   0.00000000
C  -2.43820700  -0.70931400   0.00000000
H  -3.38829700  -1.24972900   0.00000000
C  -2.43820700   0.70931400   0.00000000
H  -3.38829700   1.24972900   0.00000000
H  -1.24548400   2.49824300   0.00000000
H  -1.24548400  -2.49824300   0.00000000
C   1.24247096   1.40458900   0.10870212
C   1.24247096  -1.40458900   0.10870212
C   2.42892889  -0.70931400   0.21250374
H   3.37540351  -1.24972900   0.29530954
C   2.42892889   0.70931400   0.21250374
H   3.37540351   1.24972900   0.29530954
H   1.24074456   2.49824300   0.10855108
H   1.24074456  -2.49824300   0.10855108
$end

$rem
job_type sp
symmetry false
sym_ignore  true
METHOD cam-b3lyp
BASIS  6-31+G*
THRESH 14
MAX_SCF_CYCLES  500
XC_GRID  000120000194
scf_convergence 8
make_cube_files 1
plots 1
$end

$plots
grid_range (-6,6) (-6,6) (-6,6)
grid_points 120 120 120
alpha_molecular_orbital 34-35
$end
--------------------------------------------------------------

             Standard Nuclear Orientation (Angstroms)
    I     Atom           X                Y                Z
 ----------------------------------------------------------------
    1      C       0.0000000000     0.7181760000     0.0000000000
    2      C       0.0000000000    -0.7181760000     0.0000000000
    3      C      -1.2472170000     1.4045890000     0.0000000000
    4      C      -1.2472170000    -1.4045890000     0.0000000000
    5      C      -2.4382070000    -0.7093140000     0.0000000000
    6      H      -3.3882970000    -1.2497290000     0.0000000000
    7      C      -2.4382070000     0.7093140000     0.0000000000
    8      H      -3.3882970000     1.2497290000     0.0000000000
    9      H      -1.2454840000     2.4982430000     0.0000000000
   10      H      -1.2454840000    -2.4982430000     0.0000000000
   11      C       1.2424709600     1.4045890000     0.1087021200
   12      C       1.2424709600    -1.4045890000     0.1087021200
   13      C       2.4289288900    -0.7093140000     0.2125037400
   14      H       3.3754035100    -1.2497290000     0.2953095400
   15      C       2.4289288900     0.7093140000     0.2125037400
   16      H       3.3754035100     1.2497290000     0.2953095400
   17      H       1.2407445600     2.4982430000     0.1085510800
   18      H       1.2407445600    -2.4982430000     0.1085510800
 ----------------------------------------------------------------

   12    -385.6720985575      6.73e-09  Convergence criterion met
 Total energy in the final basis set =     -385.6720985575

                    Orbital Energies (a.u.)
 --------------------------------------------------------------

 Alpha MOs
 -- Occupied --
-10.2807 -10.2803 -10.2739 -10.2739 -10.2737 -10.2737 -10.2732 -10.2732
-10.2730 -10.2730  -0.9621  -0.9078  -0.8592  -0.8254  -0.8026  -0.7054
 -0.6905  -0.6749  -0.5895  -0.5854  -0.5679  -0.5207  -0.5124  -0.4880
 -0.4870  -0.4703  -0.4651  -0.4375  -0.4057  -0.3971  -0.3964  -0.3495
 -0.2998  -0.2708

          Ground-State Mulliken Net Atomic Charges

     Atom                 Charge (a.u.)
  ----------------------------------------
      1 C                    -0.261269
      2 C                    -0.261269
      3 C                     0.086785
      4 C                     0.086785
      5 C                    -0.336922
      6 H                     0.189478
      7 C                    -0.336922
      8 H                     0.189478
      9 H                     0.191172
     10 H                     0.191172
     11 C                     0.087083
     12 C                     0.087083
     13 C                    -0.336977
     14 H                     0.189476
     15 C                    -0.336977
     16 H                     0.189476
     17 H                     0.191174
     18 H                     0.191174
  ----------------------------------------
  Sum of atomic charges =     0.000000

                    Cartesian Multipole Moments
 -----------------------------------------------------------------
    Charge (ESU x 10^10)
                 0.0000
    Dipole Moment (Debye)
         X      -0.0044      Y      -0.0000      Z       0.0981
       Tot       0.0982
    Quadrupole Moments (Debye-Ang)
        XX     -51.9739     XY       0.0000     YY     -52.0908
        XZ       0.5738     YZ      -0.0000     ZZ     -65.0870

 Total job time:  11.57s(wall), 569.81s(cpu)
        *  Thank you very much for using Q-Chem.  Have a nice day.  *
